48
ord_energy=-166.930847
O 0.156169 -3.689088 3.634248
H 0.745821 -3.034909 4.027813
H 0.405483 -3.748087 2.699306
O -3.294127 -8.031252 2.635327
H -2.976886 -8.275975 1.756678
H -2.626685 -7.435381 3.000366
O -2.152053 -2.164294 3.148436
H -2.898565 -2.774446 3.104642
H -1.384020 -2.695851 3.406169
O -4.521307 -6.461007 -0.465543
H -4.109735 -5.588038 -0.513803
H -5.024888 -6.469944 0.358400
O -3.026453 -4.097685 -0.000973
H -2.555228 -3.259031 -0.079011
H -3.362983 -4.134496 0.906908
O -2.513611 -8.270775 -0.121671
H -2.532987 -8.985312 -0.752321
H -3.261597 -7.683762 -0.335558
O -1.402316 -1.860538 0.464165
H -0.906178 -1.036653 0.389369
H -1.723405 -1.899245 1.378035
O 1.802126 -1.481225 4.236053
H 2.076455 -1.472481 3.300915
H 2.581022 -1.300549 4.755030
O 2.264313 -1.502387 1.550855
H 1.912614 -2.335434 1.210070
H 1.701732 -0.808730 1.183572
O -0.970736 -5.965522 0.379678
H -1.313158 -6.833141 0.133674
H -1.667101 -5.328640 0.157843
O -5.543344 -6.550262 2.220548
H -4.803314 -7.148104 2.432100
H -6.324989 -6.926137 2.616032
O -3.800946 -4.383341 2.683699
H -3.032806 -4.922519 2.926606
H -4.544314 -4.993786 2.610933
O -1.489943 -5.903663 3.139297
H -1.235135 -5.978098 2.207425
H -0.879296 -5.269588 3.534954
O 0.237000 0.403772 0.826859
H -0.029373 0.405857 1.764333
H 0.259125 1.313509 0.543049
O 0.650620 -3.732848 0.875029
H -0.035691 -3.090045 0.641288
H 0.315260 -4.595425 0.601205
O -0.466709 0.096156 3.441151
H 0.282213 -0.343840 3.863140
H -1.194023 -0.539636 3.465156
