48
ord_energy=-166.004456
O 0.536705 -2.461076 1.950073
H 1.463449 -2.700286 2.094540
H 0.302728 -2.829195 1.086956
O -4.632896 -0.332739 2.033452
H -4.867957 -0.529435 1.118214
H -3.677266 -0.464242 2.097411
O -0.212910 -3.792121 -0.436649
H -0.526519 -4.591325 0.013131
H -0.998112 -3.273673 -0.653183
O -6.072638 -3.540656 0.983101
H -6.083747 -3.233369 1.898007
H -5.339517 -4.167824 0.921414
O -3.542376 -4.789034 0.852518
H -3.249076 -4.015028 0.350297
H -2.806534 -5.414835 0.840623
O -5.681603 -2.325865 3.570302
H -5.364711 -1.542354 3.085778
H -6.292786 -2.013849 4.231962
O -1.048354 -5.991917 1.080196
H -0.930468 -5.571644 1.943157
H -0.253713 -6.526039 0.938046
O 2.980857 -3.701699 2.106029
H 2.960505 -4.028938 1.197437
H 2.771747 -4.462049 2.662547
O 1.857990 -5.916750 3.581003
H 0.988608 -5.495297 3.677603
H 2.068574 -6.304621 4.427044
O -3.206429 -3.652194 3.389966
H -3.367162 -4.114232 2.553608
H -4.052429 -3.266675 3.648840
O -5.275595 -1.434471 -0.554088
H -5.913287 -1.185431 -1.217428
H -5.651983 -2.191253 -0.069644
O -2.640576 -2.403893 -0.366876
H -3.490071 -2.027712 -0.628031
H -2.403772 -1.976030 0.469584
O -2.019457 -1.395167 2.170956
H -1.062930 -1.529661 2.185128
H -2.404447 -2.127981 2.673053
O 1.502741 -6.995407 0.930962
H 1.731838 -6.761947 1.839835
H 1.933557 -6.334658 0.374742
O -0.556437 -4.545101 3.466572
H -0.166215 -3.780316 3.016895
H -1.465999 -4.302178 3.680825
O 2.416308 -4.686327 -0.544294
H 1.524055 -4.316367 -0.643264
H 2.848034 -4.587015 -1.389471
