48
ord_energy=-167.179718
O -3.227570 2.223866 1.196449
H -2.349529 2.632524 1.183439
H -3.630127 2.417260 0.340527
O -3.767437 2.490782 -1.537860
H -3.439145 1.590879 -1.684167
H -4.117556 2.788797 -2.385964
O -0.086568 1.240404 -2.350449
H -0.396648 2.121599 -2.092865
H -0.032876 1.246884 -3.313648
O -2.698468 1.635545 3.916717
H -2.514953 0.688691 3.874549
H -3.101333 1.868168 3.069531
O 0.635523 0.255826 3.139152
H 0.497625 1.155821 3.460057
H 0.742979 0.326654 2.181251
O 0.263166 0.593503 0.351097
H -0.595645 0.165091 0.481611
H 0.369665 0.704227 -0.602032
O -1.577411 3.961311 -4.338771
H -2.531942 3.818471 -4.369436
H -1.358994 4.081756 -3.405095
O -3.111028 0.627023 -4.648312
H -2.207024 0.821764 -4.926384
H -3.034982 0.204099 -3.782681
O -1.734486 -1.045661 3.491421
H -0.841153 -0.662249 3.427820
H -1.667598 -1.812775 4.053256
O -2.332719 -0.403898 0.818125
H -2.218066 -0.803061 1.689030
H -2.725242 0.468717 0.970690
O -0.449417 1.607965 -5.121055
H 0.093799 1.686899 -5.900383
H -0.795279 2.497899 -4.925447
O -1.218812 3.680706 -1.543734
H -0.917106 3.739597 -0.628554
H -2.130771 3.355970 -1.510670
O -0.566576 3.154386 1.127268
H -0.384407 3.248647 2.070073
H -0.192160 2.300370 0.864058
O -0.271625 2.878651 3.911730
H -1.159330 2.489458 4.009721
H -0.120810 3.422136 4.680153
O -2.569676 -0.016820 -1.944247
H -2.575218 -0.379937 -1.049728
H -1.676825 0.327544 -2.094066
O -4.301709 3.044762 -4.249074
H -3.959136 2.158207 -4.464775
H -5.063235 3.190081 -4.803715
