48
ord_energy=-165.923538
O 1.848140 -7.826492 1.806241
H 1.648883 -8.348630 1.014614
H 2.742590 -7.486620 1.681787
O 4.833923 -11.550717 0.386037
H 5.586213 -12.125226 0.273115
H 5.008444 -11.007915 1.176498
O 2.144120 -11.755314 1.205159
H 3.030713 -11.887362 0.848007
H 2.258490 -11.243084 2.019739
O 5.053130 -9.885928 2.531308
H 4.245007 -10.002416 3.048730
H 5.014648 -8.985222 2.185759
O -0.604097 -12.016040 1.667970
H 0.324353 -12.170177 1.452836
H -0.876603 -11.234343 1.163836
O 2.383353 -10.065489 3.433769
H 1.568256 -10.279645 3.905838
H 2.211844 -9.242284 2.953755
O -2.918005 -10.725083 4.775724
H -3.134685 -11.402046 4.121656
H -3.240768 -9.893182 4.407842
O -0.747759 -8.189639 2.788298
H 0.106434 -7.827369 2.521508
H -0.557982 -8.981013 3.314770
O -3.470986 -8.282247 3.337006
H -3.864316 -7.452874 3.597805
H -2.534615 -8.100419 3.155615
O -3.961516 -10.125812 1.175262
H -3.870990 -10.984820 1.605939
H -3.963502 -9.474376 1.888466
O -1.367811 -9.626864 0.425928
H -2.321817 -9.785288 0.467498
H -1.164852 -9.051687 1.176371
O -3.185534 -12.542653 2.553716
H -3.467695 -13.450871 2.475555
H -2.269318 -12.508234 2.234160
O 4.560137 -7.400750 1.164705
H 5.125245 -6.672571 0.921452
H 4.430023 -7.938382 0.362247
O 4.034380 -9.101323 -0.897670
H 4.367457 -9.967646 -0.631776
H 3.072750 -9.191374 -0.936541
O -0.258293 -10.610830 4.104441
H -0.337647 -11.171560 3.320559
H -1.114717 -10.663729 4.552430
O 1.303098 -9.552024 -0.339678
H 0.337205 -9.545795 -0.330311
H 1.574644 -10.363543 0.113306
