48
ord_energy=-166.328613
O 0.679734 -8.939046 5.369207
H -0.202092 -8.918164 5.730339
H 1.073176 -9.789340 5.636155
O 6.785774 -12.301364 7.822329
H 6.957592 -12.888545 8.553173
H 7.435552 -11.577823 7.882717
O 7.495520 -12.512490 5.021471
H 8.288741 -11.962087 4.988532
H 7.278980 -12.604290 5.957084
O 5.072217 -8.303066 6.573222
H 4.268188 -7.830389 6.310006
H 4.842555 -9.230697 6.720466
O 2.745348 -11.975812 3.224508
H 3.683692 -11.800421 3.414394
H 2.714702 -12.778596 2.710863
O 5.782974 -8.602336 3.853269
H 5.559172 -8.472379 4.786140
H 5.110628 -8.131716 3.344815
O 2.867171 -7.126426 5.486333
H 2.073949 -7.676830 5.519272
H 3.083711 -7.034626 4.550721
O 4.579716 -11.036580 6.654535
H 4.803519 -11.166537 5.721663
H 5.252063 -11.507200 7.162990
O 3.576917 -7.337553 2.685475
H 3.405098 -6.750370 1.954631
H 2.927139 -8.061093 2.625088
O 5.290474 -11.335851 3.934582
H 6.094503 -11.808527 4.197799
H 5.520136 -10.408219 3.787338
O 9.682957 -10.699870 5.138597
H 10.564783 -10.720752 4.777465
H 9.289515 -9.849576 4.871649
O 8.468331 -8.335265 4.629313
H 7.611244 -8.391783 4.186177
H 8.283367 -7.975365 5.506072
O 8.603060 -10.298780 7.747465
H 9.094821 -10.459174 6.931483
H 8.299786 -9.383861 7.697536
O 7.617343 -7.663104 7.283296
H 7.647989 -6.860320 7.796941
H 6.678999 -7.838495 7.093410
O 1.894360 -11.303651 5.878491
H 2.751447 -11.247133 6.321627
H 2.079324 -11.663551 5.001732
O 1.759631 -9.340136 2.760340
H 1.267869 -9.179743 3.576321
H 2.062905 -10.255055 2.810268
