48
ord_energy=-167.109344
O 1.853962 -7.839943 1.564692
H 2.729973 -7.515375 1.323972
H 1.576459 -8.424367 0.843297
O 4.735039 -11.644857 0.205852
H 4.962530 -11.041027 0.936260
H 5.481207 -12.225318 0.083529
O 2.125998 -11.790578 1.261656
H 2.295580 -11.216713 2.023818
H 2.983438 -11.945556 0.847574
O 5.094147 -9.815706 2.192777
H 5.020185 -8.950714 1.769925
H 4.331880 -9.886634 2.782570
O -0.553970 -12.015410 2.044483
H -0.900060 -11.303265 1.486492
H 0.345225 -12.188133 1.738674
O 2.503204 -9.929542 3.331189
H 2.290875 -9.149692 2.797302
H 1.731536 -10.097549 3.886353
O -2.668118 -10.614532 5.399934
H -3.070212 -10.953375 6.195025
H -2.888531 -11.237273 4.683365
O -0.669177 -8.124150 2.747311
H -0.437020 -8.847443 3.348339
H 0.163550 -7.781987 2.398896
O -3.351289 -8.498017 3.577028
H -2.488782 -8.141185 3.326644
H -3.183986 -9.096780 4.315931
O -4.186729 -10.075999 1.519205
H -5.061403 -9.862067 1.206406
H -3.984816 -9.455068 2.242762
O -1.524263 -9.777898 0.644299
H -1.267922 -9.136931 1.324314
H -2.477496 -9.896143 0.734027
O -3.134738 -12.156430 3.202791
H -2.275418 -12.344810 2.802764
H -3.597795 -11.586602 2.575607
O 4.490465 -7.472472 0.639020
H 4.281474 -8.074492 -0.098376
H 5.021065 -6.767099 0.279050
O 3.762537 -9.337706 -1.208585
H 2.802977 -9.435231 -1.147968
H 4.132253 -10.173763 -0.897453
O -0.085040 -10.399443 4.293363
H -0.865259 -10.450788 4.858438
H -0.233460 -11.029850 3.572581
O 1.090600 -9.738759 -0.358973
H 1.416861 -10.507463 0.131877
H 0.130345 -9.740192 -0.259912
