48
ord_energy=-165.994293
O 9.709705 2.091506 -2.113636
H 8.909567 2.632420 -2.096341
H 9.633083 1.486665 -1.365213
O 14.185653 2.364713 2.544679
H 14.806053 1.782214 2.973875
H 14.697858 2.911422 1.921027
O 14.372446 4.538030 -1.682800
H 13.519908 4.078048 -1.597066
H 14.659559 4.417581 -2.584251
O 11.665049 2.252844 1.375774
H 12.534988 2.165668 1.785513
H 11.258408 3.052367 1.742090
O 9.643468 0.668174 0.397860
H 10.384894 1.159785 0.789388
H 9.787388 -0.253155 0.598405
O 7.428964 2.406225 0.815998
H 7.294596 2.751089 -0.076552
H 8.123900 1.741165 0.739682
O 7.378376 3.670452 -1.736941
H 7.664822 4.486056 -1.287871
H 6.680507 3.917948 -2.337216
O 11.955175 3.343955 -1.207966
H 11.967601 2.938444 -0.331141
H 11.216291 2.937499 -1.684208
O 14.814463 6.503121 2.151482
H 14.192016 5.999333 2.705379
H 15.263591 7.114527 2.728730
O 13.494240 6.945516 -0.336526
H 13.947396 6.906264 0.515305
H 13.881812 6.242033 -0.871933
O 13.138894 4.878907 3.547691
H 12.226119 4.878470 3.227834
H 13.477332 3.991321 3.381378
O 10.651796 4.669914 2.271464
H 9.700680 4.664219 2.433759
H 10.791931 5.158301 1.446518
O 8.207980 5.799577 -0.279005
H 8.027994 5.566217 0.639245
H 9.163177 5.944267 -0.334107
O 15.485198 4.048787 0.879120
H 15.202887 4.159471 -0.037210
H 15.400382 4.919572 1.289183
O 11.000483 5.811584 -0.231143
H 11.243890 4.983366 -0.665306
H 11.791190 6.369011 -0.254283
O 7.860081 4.607607 2.339552
H 7.670041 3.781062 1.860015
H 7.160058 4.725796 2.975523
