48
ord_energy=-167.06958
O -1.625679 1.639231 -0.129671
H -1.540286 2.418898 0.439071
H -1.765082 1.973746 -1.024328
O -0.849004 0.158751 2.160073
H -0.982719 0.497739 1.264988
H -1.689895 -0.234365 2.425502
O -2.487852 3.096638 -2.360656
H -2.669697 3.423244 -3.250051
H -2.424199 3.879660 -1.792792
O -2.541081 5.285600 -0.621719
H -3.476920 5.207908 -0.383371
H -2.042428 4.977854 0.145341
O -5.079082 2.421484 -1.485462
H -4.188148 2.572460 -1.834865
H -4.985097 1.762060 -0.786841
O -3.307129 1.895126 4.299796
H -3.766599 2.524201 3.727848
H -2.372758 2.135685 4.265556
O -1.633862 3.855668 1.609182
H -2.568891 3.756160 1.844689
H -1.130010 3.509917 2.355742
O -5.270369 4.835752 -0.087961
H -5.295127 3.989255 -0.559632
H -5.684541 5.481831 -0.672602
O -6.095197 6.499406 -2.203004
H -6.573360 7.312854 -2.338114
H -5.176819 6.660351 -2.485426
O -3.456658 4.360148 -4.681530
H -3.416098 4.260858 -5.628677
H -4.383778 4.213471 -4.420729
O -4.341465 3.370169 2.110647
H -4.381953 2.517219 1.652960
H -4.794701 4.002824 1.539623
O -3.470685 6.645395 -2.929265
H -2.975072 6.341836 -2.157130
H -3.345051 5.971793 -3.609388
O -4.195225 0.928425 0.713230
H -3.299091 1.091409 0.381531
H -4.103060 0.301492 1.440707
O -5.960489 4.017212 -3.656808
H -6.179604 4.843371 -3.207875
H -5.862917 3.352707 -2.961910
O -3.510338 -0.511135 3.032733
H -3.485864 0.298325 3.574267
H -3.864330 -1.203157 3.584446
O -0.525114 2.368064 3.725597
H 0.266482 2.345928 4.256141
H -0.540846 1.544337 3.205684
