48
ord_energy=-166.99939
O -2.601647 5.693040 -0.500458
H -3.272625 5.239179 -1.031956
H -1.756903 5.286782 -0.730654
O -1.259882 2.631247 1.290903
H -1.866784 3.221143 1.754899
H -0.961737 3.114498 0.505804
O -6.974297 4.682833 1.040880
H -7.000391 5.158178 0.200960
H -6.479476 3.869845 0.873073
O -4.691683 7.467906 0.221383
H -3.847291 7.063439 -0.018129
H -4.876916 7.184675 1.125578
O -0.412398 0.671395 -2.943786
H -1.190226 1.242454 -2.995575
H -0.642952 -0.032629 -2.324316
O -1.018705 -1.052360 -0.723634
H -0.378024 -0.531900 -0.205497
H -0.845405 -1.970851 -0.536550
O -2.966454 0.881435 -0.081223
H -2.385066 1.431241 0.466041
H -2.465222 0.083094 -0.286023
O 1.553255 2.111802 -1.724875
H 0.922944 1.581915 -2.246166
H 2.371528 2.128870 -2.213544
O -0.564908 3.874259 -1.130645
H 0.277603 3.451026 -1.334543
H -1.234762 3.404876 -1.651002
O -3.266585 4.479318 1.929685
H -2.985991 4.960331 1.136277
H -3.904678 5.047781 2.377410
O -6.551543 6.235842 -1.346991
H -7.097228 6.843169 -1.838897
H -5.924345 6.773184 -0.830300
O -4.975527 2.740635 0.519117
H -4.481948 1.930245 0.342264
H -4.405361 3.286143 1.081277
O -4.623979 4.239254 -1.815709
H -5.331472 4.894041 -1.854176
H -4.816371 3.678059 -1.049127
O -2.585698 2.410098 -2.407202
H -3.317338 3.037048 -2.464083
H -2.782104 1.834357 -1.653047
O -5.388331 6.163889 2.692559
H -5.830883 6.454952 3.485035
H -6.034749 5.644020 2.181713
O 0.649415 0.658529 0.585772
H 0.091904 1.301404 1.043702
H 1.110358 1.153109 -0.103771
