48
ord_energy=-165.975357
O 6.901982 21.841358 4.811494
H 7.567497 21.310709 5.271974
H 6.192800 21.990311 5.453840
O 9.397421 21.787260 1.310775
H 9.145391 22.434708 1.981278
H 10.199487 21.361446 1.640140
O 9.624989 18.289951 2.422747
H 9.153308 18.076460 3.238827
H 8.957665 18.629765 1.813956
O 6.172362 19.673353 3.213058
H 6.594079 19.721149 2.345860
H 6.347478 20.505770 3.673751
O 5.470632 18.374054 8.096339
H 4.675071 18.814709 7.770649
H 6.092031 19.079948 8.313824
O 11.480324 20.264622 2.529557
H 10.880672 19.496992 2.516355
H 12.333552 19.953129 2.240717
O 5.148270 21.892475 6.896257
H 4.451529 21.225920 6.839719
H 5.786689 21.550293 7.534926
O 8.699005 23.438513 3.506361
H 7.979186 22.951893 3.943103
H 8.514572 24.366591 3.625426
O 3.338640 19.704310 6.748237
H 3.595881 19.203297 5.953588
H 2.388726 19.653954 6.809436
O 8.753769 20.256369 6.216917
H 8.590726 19.437242 5.729658
H 9.504901 20.712479 5.808575
O 7.681705 19.744045 0.858631
H 8.260162 20.521467 0.959621
H 7.469138 19.675699 -0.068115
O 7.209671 20.590540 8.443469
H 7.826913 20.470726 7.701148
H 7.727799 20.894981 9.183973
O 10.599883 21.689995 4.812058
H 10.087361 22.397596 4.403315
H 11.002712 21.201866 4.082099
O 4.258518 18.230583 4.662770
H 4.822494 18.728388 4.054827
H 4.823565 17.557251 5.060265
O 6.119124 16.593162 6.159200
H 5.924021 17.183220 6.909669
H 6.028599 15.700095 6.479663
O 7.955361 18.087442 4.673454
H 7.431626 17.462832 5.190288
H 7.323027 18.604971 4.152503
