48
ord_energy=-167.249741
O 0.691332 -2.695712 1.453397
H 0.324731 -3.204859 0.715010
H 1.605662 -2.987265 1.553103
O -4.147214 0.165910 1.454362
H -3.216803 -0.095513 1.467100
H -4.510243 -0.177785 0.628497
O -0.508668 -4.306625 -0.499379
H -1.252653 -3.755536 -0.773222
H -0.866831 -4.962621 0.116614
O -6.103025 -2.957124 1.252186
H -5.463673 -3.681419 1.280360
H -5.981909 -2.461522 2.071746
O -3.770642 -4.564134 1.221338
H -3.122710 -5.276748 1.288921
H -3.445313 -3.963353 0.534838
O -5.313298 -1.275179 3.453919
H -5.800677 -0.740146 4.074240
H -4.936524 -0.668523 2.791270
O -1.428306 -6.069269 1.501092
H -0.765552 -6.768031 1.442488
H -1.156517 -5.500586 2.237007
O 3.115338 -4.095513 1.737459
H 2.732401 -4.712533 2.386875
H 4.016129 -3.935340 2.004885
O 1.782336 -5.817297 3.378583
H 1.502064 -6.555399 2.823045
H 0.974723 -5.349374 3.629536
O -3.050457 -2.946001 3.391902
H -3.813550 -2.400122 3.616958
H -3.349423 -3.556094 2.701071
O -5.236659 -1.327829 -0.755183
H -5.644172 -1.915183 -0.093334
H -5.906538 -1.136173 -1.405664
O -2.753366 -2.637299 -0.569469
H -2.359588 -2.086742 0.123833
H -3.567357 -2.192863 -0.835627
O -1.690045 -1.234636 1.610038
H -2.115471 -1.772560 2.293930
H -0.764956 -1.509785 1.583453
O 0.893822 -7.649758 1.340726
H 1.307499 -7.052042 0.692111
H 1.150290 -8.536621 1.103461
O -0.571443 -4.242887 3.444924
H -1.400478 -3.806212 3.677771
H -0.113182 -3.649746 2.831541
O 1.927106 -5.739770 -0.308209
H 2.449292 -5.153576 0.253633
H 1.164957 -5.221975 -0.600074
